% Model:              Alpha detector sapphire_3mm_YAP_0.5mm_1fourthGeom_noResults_new.mph
% Version:            COMSOL 5.4.0.388
% Date:               Aug 25 2019, 12:30
% Dimension:          3
% Nodes:              15840
% Expressions:        1
% Description:        Surface
% X                       Y                        Z                        Color
-0.596                    -0.556                   0                        0
-0.5873397459621557       -0.5509999999999999      0                        0
-0.5960000000000001       -0.5460000000000002      0                        0
-0.5875350194574714       -0.5707742377551507      0                        0.16666666666666666
-0.5960000000000001       -0.5660000000000002      0                        0
-0.596                    -0.576                   0                        0
-0.5960000000000001       -0.47600000000000015     0                        0
-0.5873397459621557       -0.47100000000000014     0                        0
-0.596                    -0.466                   0                        0
-0.5873397459621557       -0.481                   0                        0
-0.5960000000000001       -0.496                   0                        0
-0.5873397459621557       -0.4910000000000002      0                        0
-0.5960000000000001       -0.48600000000000004     0                        0
-0.5873397459621557       -0.501                   0                        0
-0.5960000000000001       -0.506                   0                        0
-0.5786794919243113       -0.4960000000000001      0                        0
-0.5786794919243113       -0.4760000000000003      0                        0
-0.5786794919243113       -0.48600000000000004     0                        0
-0.4960000000000001       -0.5960000000000001      0                        0
-0.48600000000000015      -0.5960000000000001      0                        0
-0.4910000000000002       -0.5873397459621557      0                        0
-0.5613589838486226       -0.5259999999999998      0                        0
-0.5526987298107781       -0.5209999999999999      0                        0
-0.5613589838486224       -0.5159999999999999      0                        0
-0.5660000000000002       -0.5960000000000001      0                        0
-0.5697429655835201       -0.5873858588354736      0                        0
-0.576                    -0.596                   0                        0
-0.5726065609822659       -0.5800137247298276      0                        0
-0.5650844067334828       -0.5793084510408953      0                        0
-0.556                    -0.5960000000000001      0                        0
-0.5606622651418508       -0.5875376545030736      0                        0
-0.5702723686732134       -0.5706049798906817      0                        0
-0.5593048999154928       -0.5704242089258802      0                        0
-0.5635835235781192       -0.5632219385746716      0                        0
-0.5873397459621557       -0.5610000000000003      0                        0.3333333333333333
-0.5402798834758553       -0.5701536006075479      0                        0
-0.5447812715145676       -0.5614448248707707      0                        0
-0.5500611773517115       -0.5701661168090932      0                        0
-0.546                    -0.596                   0                        0
-0.5359999999999999       -0.596                   0                        0
-0.541                    -0.5873397459621554      0                        0
-0.5309999999999999       -0.5873397459621557      0                        0
-0.5359999999999998       -0.5786794919243111      0                        0
-0.526                    -0.5960000000000002      0                        0
-0.5060000000000001       -0.5960000000000001      0                        0
-0.5010000000000001       -0.5873397459621557      0                        0
-0.4960000000000001       -0.5786794919243113      0                        0.16666666666666666
-0.516                    -0.5960000000000001      0                        0
-0.5209999999999999       -0.5873397459621557      0                        0
-0.5110000000000001       -0.5873397459621558      0                        0
-0.516                    -0.5786794919243113      0                        0
-0.5259999999999998       -0.5786794919243113      0                        0
-0.5209999999999999       -0.570019237886467       0                        0
-0.5803481805740354       -0.5868284871350155      0                        0.14285714285714285
-0.5860000000000001       -0.5960000000000001      0                        0
-0.588658436791115        -0.5806942744630109      0                        0.16666666666666666
-0.5960000000000001       -0.5860000000000002      0                        0
-0.5960000000000001       -0.5960000000000001      0                        0
-0.5894254578291948       -0.5884066526586333      0                        0
-0.5786794919243113       -0.5059999999999999      0                        0
-0.570019237886467        -0.501                   0                        0
-0.5873397459621557       -0.5109999999999998      0                        0
-0.596                    -0.5159999999999999      0                        0
-0.5960000000000001       -0.5260000000000001      0                        0
-0.5873397459621557       -0.5210000000000001      0                        0
-0.466                    -0.596                   0                        0
-0.45600000000000007      -0.5960000000000001      0                        0
-0.461                    -0.5873397459621557      0                        0
-0.47600000000000003      -0.596                   0                        0
-0.47100000000000014      -0.5873397459621557      0                        0
-0.4810000000000002       -0.5873397459621557      0                        0
-0.4760000000000003       -0.5786794919243111      0                        0
-0.570019237886467        -0.4910000000000002      0                        0
-0.570019237886467        -0.4810000000000002      0                        0
-0.5613589838486226       -0.48600000000000004     0                        0
-0.5700192378864667       -0.4710000000000003      0                        0
-0.5613589838486226       -0.4760000000000005      0                        0
-0.5526987298107783       -0.48100000000000037     0                        0
-0.5613589838486222       -0.4660000000000001      0                        0
-0.5786794919243111       -0.4660000000000001      0                        0
-0.5700192378864667       -0.4609999999999998      0                        0
-0.5786794919243113       -0.4559999999999999      0                        0
-0.5613589838486224       -0.45599999999999974     0                        0
-0.5873397459621557       -0.4609999999999998      0                        0
-0.5960000000000001       -0.45600000000000007     0                        0
-0.5873397459621557       -0.451                   0                        0
-0.5786794919243111       -0.44599999999999995     0                        0
-0.596                    -0.44600000000000006     0                        0
-0.5873397459621557       -0.44099999999999984     0                        0
-0.5960000000000001       -0.436                   0                        0
-0.5873397459621557       -0.43100000000000005     0                        0
-0.5786794919243113       -0.4259999999999999      0                        0
-0.5873397459621557       -0.42100000000000004     0                        0
-0.5786794919243113       -0.41600000000000015     0                        0
-0.5960000000000001       -0.426                   0                        0
-0.5960000000000001       -0.416                   0                        0
-0.44600000000000006      -0.596                   0                        0
-0.4510000000000002       -0.5873397459621557      0                        0
-0.4460000000000001       -0.5786794919243111      0                        0
-0.43599999999999994      -0.5786794919243113      0                        0
-0.44099999999999984      -0.5700192378864669      0                        0
-0.4510000000000002       -0.5700192378864669      0                        0
-0.4460000000000001       -0.5613589838486224      0                        0
-0.4359999999999998       -0.5613589838486226      0                        0
-0.44099999999999984      -0.552698729810778       0                        0
-0.45100000000000035      -0.5526987298107781      0                        0
-0.5873397459621554       -0.541                   0                        0
-0.596                    -0.5359999999999999      0                        0
-0.5786794919243113       -0.5460000000000002      0                        0
-0.5873397459621557       -0.5309999999999998      0                        0
-0.5706974923725446       -0.5604881106998432      0                        0.16666666666666666
-0.5700192378864669       -0.5509999999999999      0                        0.16666666666666666
-0.5700192378864667       -0.541                   0                        0
-0.5787475674401552       -0.5555987608194992      0                        0.3333333333333333
-0.5789110819285465       -0.5655197451956541      0                        0.3333333333333333
-0.5799871730392567       -0.5757343386939543      0                        0.16666666666666666
-0.5527173673080314       -0.5310811469831025      0                        0
-0.5440646061903703       -0.5260795364583705      0                        0
-0.544845407708525        -0.5361389839285102      0                        0
-0.5534817772952858       -0.5411505065204075      0                        0
-0.5466564756305944       -0.5460451760006187      0                        0
-0.5616109320052866       -0.5458923550812487      0                        0
-0.5631695785653383       -0.5555902252894663      0                        0
-0.5548135009064507       -0.5507561945306549      0                        0
-0.5549588280709095       -0.5607030230565333      0                        0
-0.5480883641076026       -0.5542427029011711      0                        0
-0.5786794919243111       -0.5359999999999998      0                        0
-0.5700192378864669       -0.5309999999999998      0                        0
-0.5786794919243113       -0.526                   0                        0
-0.5786794919243111       -0.5159999999999999      0                        0
-0.5700192378864669       -0.5210000000000001      0                        0
-0.5613589838486222       -0.5359999999999998      0                        0
-0.5700192378864669       -0.5109999999999998      0                        0
-0.5110000000000001       -0.570019237886467       0                        0
-0.516                    -0.5613589838486227      0                        0
-0.5060000000000002       -0.5786794919243113      0                        0
-0.5010000000000001       -0.5700192378864669      0                        0
-0.4910000000000002       -0.570019237886467       0                        0.16666666666666666
-0.48100000000000037      -0.5700192378864669      0                        0
-0.48600000000000043      -0.5613589838486226      0                        0
-0.4760000000000005       -0.5613589838486222      0                        0
-0.45600000000000007      -0.5786794919243113      0                        0
-0.47100000000000014      -0.5700192378864667      0                        0
-0.46599999999999975      -0.5613589838486224      0                        0
-0.45600000000000007      -0.5613589838486226      0                        0
-0.4659999999999999       -0.5786794919243111      0                        0
-0.4609999999999998       -0.5700192378864669      0                        0
-0.4860000000000002       -0.5786794919243113      0                        0.16666666666666666
-0.4810000000000007       -0.5526987298107781      0                        0
-0.5259999999999995       -0.5613589838486226      0                        0
-0.5309999999999996       -0.5700192378864669      0                        0
-0.535442936561465        -0.5612795942448403      0                        0
-0.5306779388094108       -0.5524051642095         0                        0
-0.5402574440095765       -0.5532182988550619      0                        0
-0.5359694915877508       -0.541895514282524       0                        0
-0.5256498351853981       -0.5438987781476681      0                        0
-0.5361754556864771       -0.5310734961981476      0                        0
-0.5287187294923276       -0.5359583457463819      0                        0
-0.5206073435573519       -0.5354999294592944      0                        0
-0.5353130300237612       -0.5210975413719462      0                        0
-0.5060000000000002       -0.5613589838486226      0                        0
-0.5110000000000003       -0.5526987298107784      0                        0
-0.4960000000000001       -0.5613589838486226      0                        0
-0.5207701370820962       -0.5525743902491729      0                        0
-0.5010000000000001       -0.5526987298107781      0                        0
-0.4910000000000002       -0.5526987298107783      0                        0
-0.4860000000000006       -0.544038475772934       0                        0
-0.4960000000000001       -0.5440384757729337      0                        0
-0.5157609332969236       -0.5437770450824401      0                        0
-0.5060000000000006       -0.5440384757729337      0                        0
-0.5260829879924811       -0.5265473710406199      0                        0
-0.5273227071261735       -0.5159524961708252      0                        0
-0.5196365661010277       -0.5189140270504055      0                        0
-0.5151232170637914       -0.5265995648896699      0                        0
-0.5355312027854879       -0.5112018793822308      0                        0
-0.5268714997300173       -0.5060009331536399      0                        0
-0.5440384757729336       -0.5159999999999997      0                        0
-0.5526987298107781       -0.5109999999999996      0                        0
-0.5613589838486227       -0.5059999999999997      0                        0
-0.5526987298107784       -0.501                   0                        0
-0.5613589838486226       -0.4960000000000001      0                        0
-0.5526987298107783       -0.4910000000000002      0                        0
-0.544038475772934        -0.4860000000000002      0                        0
-0.5180577136594012       -0.48100000000000104     0                        0
-0.5180577136594          -0.47100000000000153     0                        0
-0.526717967697245        -0.47600000000000153     0                        0
-0.544038475772934        -0.4960000000000003      0                        0
-0.518341826752844        -0.5007864952076396      0                        0
-0.5267179676972453       -0.4960000000000003      0                        0
-0.5440384757729341       -0.5059999999999996      0                        0
-0.5353782217350896       -0.4910000000000002      0                        0
-0.5353782217350896       -0.4810000000000007      0                        0
-0.5353782217350899       -0.501                   0                        0
-0.4910000000000002       -0.5353782217350896      0                        0
-0.5103536297005565       -0.535091833284804       0                        0
-0.5010000000000003       -0.5353782217350893      0                        0
-0.49557449200411957      -0.526588416245647       0                        0
-0.48600000000000093      -0.5267179676972453      0                        0
-0.4760000000000011       -0.5267179676972441      0                        0
-0.4810000000000021       -0.5180577136594003      0                        0
-0.46599999999999886      -0.5267179676972447      0                        0
-0.47099999999999964      -0.5180577136593993      0                        0
-0.47600000000000187      -0.5093974596215548      0                        0
-0.5053923541396786       -0.526250644715894       0                        0
-0.5000388022333732       -0.5179420586982846      0                        0
-0.5105984182542762       -0.516725197163618       0                        0
-0.5190493136718684       -0.5106915178542084      0                        0
-0.5550337590546351       -0.5789798611181391      0                        0
-0.5510000000000003       -0.5873397459621557      0                        0
-0.5457638753450401       -0.5788882392775012      0                        0
-0.4260000000000001       -0.5613589838486226      0                        0
-0.41600000000000015      -0.5613589838486226      0                        0
-0.4210000000000002       -0.5526987298107783      0                        0
-0.4309999999999999       -0.5526987298107783      0                        0
-0.45600000000000007      -0.544038475772934       0                        0
-0.4510000000000005       -0.5353782217350893      0                        0
-0.46099999999999935      -0.5353782217350896      0                        0
-0.4460000000000003       -0.5440384757729334      0                        0
-0.4359999999999996       -0.5440384757729337      0                        0
-0.44099999999999956      -0.535378221735089       0                        0
-0.4309999999999997       -0.5353782217350896      0                        0
-0.43599999999999905      -0.526717967697245       0                        0
-0.4609999999999988       -0.518057713659401       0                        0
-0.46599999999999764      -0.5093974596215555      0                        0
-0.45600000000000024      -0.509397459621557       0                        0
-0.441                    -0.5873397459621557      0                        0
-0.4360000000000001       -0.5960000000000001      0                        0
-0.4260000000000001       -0.5786794919243113      0                        0
-0.43100000000000005      -0.570019237886467       0                        0
-0.41600000000000015      -0.5786794919243113      0                        0
-0.4210000000000002       -0.570019237886467       0                        0
-0.4310000000000002       -0.5873397459621557      0                        0
-0.42100000000000004      -0.5873397459621557      0                        0
-0.4260000000000001       -0.5960000000000002      0                        0
-0.41100000000000014      -0.5873397459621557      0                        0
-0.41600000000000015      -0.5960000000000001      0                        0
-0.40600000000000014      -0.5960000000000001      0                        0
-0.40100000000000025      -0.5873397459621557      0                        0
-0.396                    -0.596                   0                        0
-0.4060000000000003       -0.5786794919243113      0                        0
-0.396                    -0.5786794919243111      0                        0
-0.41100000000000014      -0.570019237886467       0                        0
-0.40100000000000025      -0.5700192378864667      0                        0
-0.40600000000000047      -0.5613589838486224      0                        0
-0.3860000000000002       -0.5786794919243113      0                        0
-0.39099999999999996      -0.5700192378864669      0                        0
-0.396                    -0.5613589838486224      0                        0
-0.4260000000000001       -0.544038475772934       0                        0
-0.4160000000000003       -0.544038475772934       0                        0
-0.4210000000000004       -0.5353782217350896      0                        0
-0.4110000000000009       -0.5353782217350894      0                        0
-0.4110000000000004       -0.5526987298107783      0                        0
-0.40100000000000025      -0.552698729810778       0                        0
-0.39099999999999996      -0.5526987298107783      0                        0
-0.3860000000000001       -0.5960000000000001      0                        0.3333333333333333
-0.376                    -0.596                   0                        0.3333333333333333
-0.3810000000000002       -0.5873397459621557      0                        0.16666666666666666
-0.39099999999999996      -0.5873397459621557      0                        0
-0.376                    -0.5786794919243111      0                        0
-0.37099999999999994      -0.5873397459621557      0                        0
-0.3660000000000001       -0.5960000000000001      0                        0
-0.5873397459621557       -0.4110000000000001      0                        0
-0.596                    -0.4059999999999999      0                        0
-0.5786794919243111       -0.4059999999999999      0                        0
-0.5700192378864669       -0.4009999999999997      0                        0
-0.5786794919243113       -0.3959999999999998      0                        0
-0.5786794919243113       -0.3860000000000002      0                        0
-0.5691436037364818       -0.3905484926192576      0                        0
-0.5873397459621557       -0.40099999999999986     0                        0
-0.5873397459621557       -0.39099999999999996     0                        0
-0.5960000000000001       -0.396                   0                        0
-0.5873397459621557       -0.37099999999999994     0                        0
-0.5873397459621557       -0.3610000000000001      0                        0
-0.5960000000000001       -0.366                   0                        0
-0.5873397459621557       -0.3810000000000001      0                        0
-0.5959999999999999       -0.37599999999999995     0                        0
-0.5960000000000002       -0.386                   0                        0
-0.596                    -0.3560000000000001      0                        0
-0.5873264939934845       -0.35104699234754877     0                        0
-0.5093974596215564       -0.47600000000000253     0                        0
-0.5786794919243113       -0.4359999999999998      0                        0
-0.570019237886467        -0.4309999999999999      0                        0
-0.5440384757729337       -0.47600000000000076     0                        0
-0.535378221735089        -0.47100000000000086     0                        0
-0.5440384757729333       -0.46600000000000025     0                        0
-0.535378221735089        -0.46099999999999963     0                        0
-0.5440384757729336       -0.45599999999999974     0                        0
-0.5267179676972441       -0.4660000000000004      0                        0
-0.552698729810778        -0.4609999999999998      0                        0
-0.5526987298107781       -0.451                   0                        0
-0.552698729810778        -0.4710000000000005      0                        0
-0.5613589838486226       -0.4359999999999996      0                        0
-0.5613589838486227       -0.4259999999999999      0                        0
-0.570019237886467        -0.42100000000000004     0                        0
-0.5700192378864669       -0.451                   0                        0
-0.5700192378864669       -0.4409999999999996      0                        0
-0.5613589838486224       -0.44599999999999995     0                        0
-0.552698729810778        -0.44099999999999956     0                        0
-0.5353782217350891       -0.45099999999999985     0                        0
-0.5180577136593998       -0.4609999999999995      0                        0
-0.5093974596215548       -0.46600000000000064     0                        0
-0.5267179676972448       -0.4559999999999996      0                        0
-0.5267179676972447       -0.4459999999999996      0                        0
-0.5606439506820725       -0.39562453758756777     0                        0
-0.55251560459642         -0.40061098008113183     0                        0
-0.5519706198948703       -0.3899425335910567      0                        0
-0.543335814604692        -0.38599463305165593     0                        0
-0.5504267576904706       -0.37869840947082256     0                        0
-0.5405193881718215       -0.3766276714661576      0                        0
-0.5440384757729334       -0.4059999999999999      0                        0
-0.5526987298107781       -0.4110000000000004      0                        0
-0.5526987298107783       -0.4210000000000002      0                        0
-0.5440384757729337       -0.4160000000000005      0                        0
-0.5613589838486226       -0.41600000000000015     0                        0
-0.5700192378864669       -0.41100000000000014     0                        0
-0.5613589838486224       -0.4059999999999999      0                        0
-0.4846916831040111       -0.4805353460647389      0                        0
-0.48379737078109564      -0.4706483406423362      0                        0
-0.49235728209475715      -0.4757674789590498      0                        0
-0.4756106493720914       -0.46594421147354165     0                        0
-0.48403318969922626      -0.461173251893977       0                        0
-0.4753756023341982       -0.47586585836569656     0                        0
-0.4776864169002768       -0.4848362044546747      0                        0
-0.4606077137972792       -0.4610057816888725      0                        0
-0.4678465860113091       -0.46232156984926553     0                        0
-0.4614898673071455       -0.46807989732197475     0                        0
-0.46874246154312343      -0.4691321891964724      0                        0
-0.4709999999999998       -0.5353782217350886      0                        0
-0.4810000000000012       -0.5353782217350893      0                        0
-0.47600000000000064      -0.5440384757729333      0                        0
-0.471                    -0.5526987298107777      0                        0
-0.46099999999999963      -0.5526987298107783      0                        0
-0.4659999999999994       -0.5440384757729334      0                        0
-0.45600000000000024      -0.5267179676972455      0                        0
-0.44600000000000045      -0.5267179676972444      0                        0
-0.45100000000000107      -0.5180577136594007      0                        0
-0.4409999999999994       -0.5180577136594         0                        0
-0.4259999999999999       -0.5267179676972455      0                        0
-0.43099999999999916      -0.5180577136594012      0                        0
-0.42100000000000054      -0.5180577136594012      0                        0
-0.4259453345049966       -0.5093671737809351      0                        0
-0.4430144869411265       -0.4678209846572517      0                        0
-0.44690927572259553      -0.4747393926157902      0                        0
-0.4362174565377161       -0.4750932387184545      0                        0
-0.43599999999999817      -0.509397459621556       0                        0
-0.44600000000000084      -0.5093974596215554      0                        0
-0.45100000000000207      -0.500737205583712       0                        0
-0.4409999999999988       -0.5007372055837105      0                        0
-0.4411950141551105       -0.48350023647958684     0                        0
-0.4653793761842686       -0.475908558475424       0                        0
-0.474888664543651        -0.4921842280252436      0                        0
-0.47014554299259137      -0.4842621111567398      0                        0
-0.45587878844022467      -0.4751418807232859      0                        0
-0.4655095554064622       -0.49217733611920494     0                        0
-0.47045350970907635      -0.5007711953401816      0                        0
-0.4605187840965993       -0.4839009768467845      0                        0
-0.46099999999999763      -0.5007372055837128      0                        0
-0.45107490873438316      -0.4836963560575387      0                        0
-0.4560000000000005       -0.49207695154586933     0                        0
-0.4460000000000017       -0.49207695154586584     0                        0
-0.43619963958560676      -0.4921800487206595      0                        0
-0.5093347881997246       -0.4857966508500232      0                        0
-0.5008040270398774       -0.48087965793930904     0                        0
-0.5012158147899908       -0.4904943684705867      0                        0
-0.510467994333556        -0.50587392092026        0                        0
-0.5031636633342201       -0.510282460365052       0                        0
-0.4905906065213995       -0.5179962324597863      0                        0
-0.4852971635915953       -0.5094575142683078      0                        0
-0.4950526699395358       -0.5095672161621123      0                        0
-0.500805836913567        -0.5008425117480698      0                        0
-0.4803105683730369       -0.5006156605940495      0                        0